 Gaussian 16, Revision C.01,
 Gaussian 16:  ES64L-G16RevC.01  3-Jul-2019

 -------------------------------------------
 #p wb97xd/def2SVP scf(xqc) scfcyc=999 force
 -------------------------------------------

 -------------
 Template file
 -------------
 Symbolic Z-matrix:
 Charge =  0 Multiplicity = 1

                         Standard orientation:
 ---------------------------------------------------------------------
 Center     Atomic      Atomic             Coordinates (Angstroms)
 Number     Number       Type             X           Y           Z
 ---------------------------------------------------------------------
      1         47           0       -1.820568    0.589174   -0.963527
      2         47           0        2.970976   -1.115699   -1.022281
      3         47           0       -0.409024    2.982578   -0.481692
      4         47           0        1.011940    0.772952   -1.159133
      5         47           0        0.057496   -1.843238   -1.342676
      6         47           0       -0.015540    1.052761    1.581322
      7         47           0       -1.661482   -1.327697    1.051254
      8         47           0       -4.115654   -0.487243    0.057381
      9         47           0        2.876101    0.805332    1.029811
     10         47           0        1.105755   -1.428921    1.249542
 ---------------------------------------------------------------------

 SCF Done:  E(RwB97XD) =  -1470.30070075     A.U. after   22 cycles

 The electronic state is 1-A.
 Alpha  occ. eigenvalues --   -3.85228  -3.85194  -3.84628  -3.84557  -3.84394
 Alpha  occ. eigenvalues --   -3.84358  -3.84006  -3.83962  -3.83956  -3.81583
 Alpha  occ. eigenvalues --   -2.43692  -2.43427  -2.43365  -2.43302  -2.43287
 Alpha  occ. eigenvalues --   -2.43204  -2.42928  -2.42878  -2.42797  -2.42732
 Alpha  occ. eigenvalues --   -2.42658  -2.42610  -2.42597  -2.42553  -2.42529
 Alpha  occ. eigenvalues --   -2.42497  -2.42464  -2.42448  -2.42233  -2.42212
 Alpha  occ. eigenvalues --   -2.42182  -2.42154  -2.42109  -2.42083  -2.42029
 Alpha  occ. eigenvalues --   -2.42013  -2.42004  -2.39901  -2.39716  -2.39518
 Alpha  occ. eigenvalues --   -0.47345  -0.46944  -0.46476  -0.46410  -0.45936
 Alpha  occ. eigenvalues --   -0.45375  -0.45288  -0.45132  -0.45024  -0.44854
 Alpha  occ. eigenvalues --   -0.44623  -0.44471  -0.44376  -0.44146  -0.43746
 Alpha  occ. eigenvalues --   -0.43387  -0.43142  -0.42833  -0.42716  -0.42605
 Alpha  occ. eigenvalues --   -0.42477  -0.42061  -0.41922  -0.41738  -0.41621
 Alpha  occ. eigenvalues --   -0.41051  -0.40880  -0.40860  -0.40816  -0.40600
 Alpha  occ. eigenvalues --   -0.40503  -0.40259  -0.40176  -0.40043  -0.39792
 Alpha  occ. eigenvalues --   -0.39621  -0.39613  -0.39358  -0.39333  -0.39244
 Alpha  occ. eigenvalues --   -0.39153  -0.38970  -0.38818  -0.38634  -0.38494
 Alpha  occ. eigenvalues --   -0.38257  -0.38175  -0.37954  -0.37828  -0.37455
 Alpha  occ. eigenvalues --   -0.36645  -0.30147  -0.27456  -0.24069  -0.21894
 Alpha virt. eigenvalues --   -0.04957  -0.03579  -0.03246  -0.02694  -0.01325
 Alpha virt. eigenvalues --   -0.00070   0.03136   0.03465   0.03721   0.05393
 Alpha virt. eigenvalues --    0.05697   0.05944   0.06349   0.07840   0.08735

 Mulliken charges:
               1
     1  Ag  -0.199112
     2  Ag   0.374092
     3  Ag   0.434651
     4  Ag  -0.318336
     5  Ag  -0.110911
     6  Ag  -0.363952
     7  Ag  -0.018797
     8  Ag   0.102954
     9  Ag   0.023911
    10  Ag   0.075499
 Sum of Mulliken charges =  -0.00000

 Dipole moment (field-independent basis, Debye):
    X=              1.3170    Y=              0.9241    Z=             -0.1265  Tot=              1.6138
 Quadrupole moment (field-independent basis, Debye-Ang):
   XX=           -195.3288   YY=           -182.7174   ZZ=           -198.4704
   XY=             -3.6166   XZ=             -0.2712   YZ=              1.8290

 Optimization completed.
    -- Stationary point found.
 Normal termination of Gaussian 16 at Wed Feb 26 03:29:49 2025.
