 Gaussian 16, Revision C.01,
 Gaussian 16:  ES64L-G16RevC.01  3-Jul-2019

 -------------------------------------------
 #p wb97xd/def2SVP scf(xqc) scfcyc=999 force
 -------------------------------------------

 -------------
 Template file
 -------------
 Symbolic Z-matrix:
 Charge =  0 Multiplicity = 2

                         Standard orientation:
 ---------------------------------------------------------------------
 Center     Atomic      Atomic             Coordinates (Angstroms)
 Number     Number       Type             X           Y           Z
 ---------------------------------------------------------------------
      1         47           0        2.448507   -2.086174    0.000861
      2         47           0        0.000193   -2.054597   -1.447490
      3         47           0       -0.000292   -2.052104    1.447659
      4         47           0       -2.448612   -2.086058    0.000283
      5         47           0        1.463598    0.297339    1.442258
      6         47           0        1.463648    0.295393   -1.441614
      7         47           0       -1.463799    0.297643    1.442599
      8         47           0       -1.463413    0.295223   -1.441275
      9         47           0        0.000054    2.312250   -0.001099
     10         47           0        2.781499    2.390480   -0.000927
     11         47           0       -2.781385    2.390606   -0.001254
 ---------------------------------------------------------------------

 SCF Done:  E(UwB97XD) =  -1617.33857139     A.U. after   25 cycles

 The electronic state is 2-A.
 Alpha  occ. eigenvalues --   -3.85626  -3.84794  -3.84785  -3.84783  -3.84774
 Alpha  occ. eigenvalues --   -3.84647  -3.84636  -3.84133  -3.84133  -3.83784
 Alpha  occ. eigenvalues --   -3.83784  -2.43841  -2.43825  -2.43730  -2.43096
 Alpha  occ. eigenvalues --   -2.43080  -2.43018  -2.43017  -2.42991  -2.42986
 Alpha  occ. eigenvalues --   -2.42981  -2.42967  -2.42886  -2.42879  -2.42828
 Alpha  occ. eigenvalues --   -2.42826  -2.42806  -2.42758  -2.42756  -2.42743
 Alpha  occ. eigenvalues --   -2.42735  -2.42661  -2.42393  -2.42378  -2.42205
 Alpha  occ. eigenvalues --   -2.42200  -2.42176  -2.42175  -2.41998  -2.41988
 Alpha  occ. eigenvalues --   -2.41904  -2.41904  -2.41840  -2.41833  -0.47423
 Alpha  occ. eigenvalues --   -0.47145  -0.46736  -0.46256  -0.46076  -0.46066
 Alpha  occ. eigenvalues --   -0.46030  -0.45994  -0.45478  -0.45415  -0.45276
 Alpha  occ. eigenvalues --   -0.45246  -0.44554  -0.44498  -0.44382  -0.44332
 Alpha  occ. eigenvalues --   -0.43750  -0.43664  -0.43487  -0.43311  -0.42754
 Alpha  occ. eigenvalues --   -0.42697  -0.42683  -0.42635  -0.42618  -0.42140
 Alpha  occ. eigenvalues --   -0.42034  -0.41498  -0.41469  -0.41348  -0.41280
 Alpha  occ. eigenvalues --   -0.41199  -0.40870  -0.40688  -0.40669  -0.40501
 Alpha  occ. eigenvalues --   -0.40387  -0.40236  -0.40116  -0.40107  -0.40017
 Alpha  occ. eigenvalues --   -0.39746  -0.39712  -0.39492  -0.39482  -0.39472
 Alpha  occ. eigenvalues --   -0.39217  -0.39216  -0.38947  -0.38918  -0.38666
 Alpha  occ. eigenvalues --   -0.38463  -0.38348  -0.38332  -0.38322  -0.37555
 Alpha  occ. eigenvalues --   -0.30823  -0.30728  -0.25130  -0.23392  -0.19509
 Alpha virt. eigenvalues --   -0.05086  -0.03802  -0.03757  -0.02148  -0.01107
 Alpha virt. eigenvalues --   -0.00324   0.02866   0.03207   0.03604   0.03898
 Alpha virt. eigenvalues --    0.04845   0.05918   0.06742   0.07248   0.07774

  Beta  occ. eigenvalues --   -3.85561  -3.84776  -3.84767  -3.84766  -3.84756
  Beta  occ. eigenvalues --   -3.84618  -3.84608  -3.84046  -3.84046  -3.83719
  Beta  occ. eigenvalues --   -3.83719  -2.43766  -2.43731  -2.43685  -2.43068
  Beta  occ. eigenvalues --   -2.43051  -2.43009  -2.42997  -2.42984  -2.42968
  Beta  occ. eigenvalues --   -2.42962  -2.42956  -2.42862  -2.42859  -2.42820
  Beta  occ. eigenvalues --   -2.42815  -2.42800  -2.42736  -2.42715  -2.42706
  Beta  occ. eigenvalues --   -2.42698  -2.42652  -2.42321  -2.42306  -2.42126
  Beta  occ. eigenvalues --   -2.42121  -2.42111  -2.42111  -2.41941  -2.41933
  Beta  occ. eigenvalues --   -2.41833  -2.41833  -2.41798  -2.41792  -0.47315
  Beta  occ. eigenvalues --   -0.47119  -0.46561  -0.46110  -0.46019  -0.45982
  Beta  occ. eigenvalues --   -0.45919  -0.45908  -0.45436  -0.45336  -0.45224
  Beta  occ. eigenvalues --   -0.45071  -0.44529  -0.44460  -0.44300  -0.44281
  Beta  occ. eigenvalues --   -0.43708  -0.43625  -0.43258  -0.43203  -0.42720
  Beta  occ. eigenvalues --   -0.42619  -0.42604  -0.42571  -0.42537  -0.42069
  Beta  occ. eigenvalues --   -0.41854  -0.41456  -0.41374  -0.41265  -0.41180
  Beta  occ. eigenvalues --   -0.41120  -0.40776  -0.40646  -0.40595  -0.40399
  Beta  occ. eigenvalues --   -0.40354  -0.40173  -0.40037  -0.40035  -0.39917
  Beta  occ. eigenvalues --   -0.39670  -0.39542  -0.39473  -0.39451  -0.39325
  Beta  occ. eigenvalues --   -0.39183  -0.39158  -0.38925  -0.38919  -0.38622
  Beta  occ. eigenvalues --   -0.38411  -0.38317  -0.38224  -0.38120  -0.37534
  Beta  occ. eigenvalues --   -0.30162  -0.30137  -0.24426  -0.22686
  Beta virt. eigenvalues --   -0.06771  -0.04904  -0.03930  -0.03776  -0.01294
  Beta virt. eigenvalues --   -0.00088   0.00046   0.03181   0.03389   0.03587
  Beta virt. eigenvalues --    0.04661   0.05177   0.06647   0.06715   0.07273

 Mulliken charges and spin densities:
               1          2
     1  Ag   0.014639   0.123608
     2  Ag   0.161908   0.012173
     3  Ag   0.159130   0.012481
     4  Ag   0.014639   0.123608
     5  Ag  -0.239727   0.084990
     6  Ag  -0.240590   0.085287
     7  Ag  -0.239307   0.084908
     8  Ag  -0.241011   0.085370
     9  Ag  -0.341597  -0.014133
    10  Ag   0.475960   0.200854
    11  Ag   0.475958   0.200855
 Sum of Mulliken charges =  -0.00000   1.00000

 Dipole moment (field-independent basis, Debye):
    X=              0.0000    Y=              0.6468    Z=             -0.0004  Tot=              0.6468
 Quadrupole moment (field-independent basis, Debye-Ang):
   XX=           -207.1240   YY=           -212.0562   ZZ=           -218.8241
   XY=             -0.0001   XZ=             -0.0029   YZ=              0.0057

 Optimization completed.
    -- Stationary point found.
 Normal termination of Gaussian 16 at Tue Feb 25 21:32:44 2025.
