 Gaussian 16, Revision C.01,
 Gaussian 16:  ES64L-G16RevC.01  3-Jul-2019

 -------------------------------------------
 #p wb97xd/def2SVP scf(xqc) scfcyc=999 force
 -------------------------------------------

 -------------
 Template file
 -------------
 Symbolic Z-matrix:
 Charge =  0 Multiplicity = 1

                         Standard orientation:
 ---------------------------------------------------------------------
 Center     Atomic      Atomic             Coordinates (Angstroms)
 Number     Number       Type             X           Y           Z
 ---------------------------------------------------------------------
      1         47           0        3.061340   -2.167619   -0.060032
      2         47           0        3.765473    0.517804   -0.412248
      3         47           0        0.363146   -1.758183   -0.882719
      4         47           0        2.115235    2.515975    0.606573
      5         47           0       -0.905319   -1.324271    1.707184
      6         47           0       -0.665419    1.409799    0.916514
      7         47           0        1.591860   -0.209192    1.263581
      8         47           0        1.010725    0.950839   -1.465274
      9         47           0       -2.863887    2.404372   -0.506686
     10         47           0       -3.310951   -0.005645    0.780244
     11         47           0       -2.535658   -2.403259   -0.400072
     12         47           0       -1.626545    0.069380   -1.547064
 ---------------------------------------------------------------------

 SCF Done:  E(RwB97XD) =  -1764.39089800     A.U. after   23 cycles

 The electronic state is 1-A.
 Alpha  occ. eigenvalues --   -3.84959  -3.84502  -3.84435  -3.84423  -3.84392
 Alpha  occ. eigenvalues --   -3.84331  -3.84302  -3.84253  -3.84110  -3.84003
 Alpha  occ. eigenvalues --   -3.83847  -3.83609  -2.43168  -2.43138  -2.42996
 Alpha  occ. eigenvalues --   -2.42829  -2.42772  -2.42706  -2.42687  -2.42657
 Alpha  occ. eigenvalues --   -2.42630  -2.42622  -2.42604  -2.42568  -2.42542
 Alpha  occ. eigenvalues --   -2.42517  -2.42500  -2.42470  -2.42430  -2.42419
 Alpha  occ. eigenvalues --   -2.42403  -2.42390  -2.42378  -2.42363  -2.42339
 Alpha  occ. eigenvalues --   -2.42335  -2.42276  -2.42221  -2.42200  -2.42173
 Alpha  occ. eigenvalues --   -2.42146  -2.42141  -2.42035  -2.41944  -2.41896
 Alpha  occ. eigenvalues --   -2.41850  -2.41746  -2.41641  -0.46800  -0.46651
 Alpha  occ. eigenvalues --   -0.46431  -0.46255  -0.46090  -0.45998  -0.45672
 Alpha  occ. eigenvalues --   -0.45603  -0.45414  -0.45279  -0.45022  -0.44939
 Alpha  occ. eigenvalues --   -0.44731  -0.44473  -0.44261  -0.44126  -0.43959
 Alpha  occ. eigenvalues --   -0.43844  -0.43755  -0.43302  -0.43131  -0.42908
 Alpha  occ. eigenvalues --   -0.42738  -0.42592  -0.42451  -0.42381  -0.42204
 Alpha  occ. eigenvalues --   -0.42004  -0.41614  -0.41559  -0.41419  -0.41143
 Alpha  occ. eigenvalues --   -0.41053  -0.40969  -0.40814  -0.40629  -0.40483
 Alpha  occ. eigenvalues --   -0.40321  -0.40181  -0.40091  -0.40012  -0.39881
 Alpha  occ. eigenvalues --   -0.39813  -0.39781  -0.39668  -0.39567  -0.39408
 Alpha  occ. eigenvalues --   -0.39354  -0.39219  -0.39105  -0.39017  -0.38846
 Alpha  occ. eigenvalues --   -0.38713  -0.38647  -0.38550  -0.38428  -0.38268
 Alpha  occ. eigenvalues --   -0.38172  -0.37924  -0.37729  -0.37109  -0.33558
 Alpha  occ. eigenvalues --   -0.28252  -0.24196  -0.23488  -0.22573
 Alpha virt. eigenvalues --   -0.05516  -0.04225  -0.03127  -0.02508  -0.02120
 Alpha virt. eigenvalues --   -0.00922  -0.00183   0.01998   0.03083   0.04246
 Alpha virt. eigenvalues --    0.04631   0.05008   0.05979   0.06640   0.06952

 Mulliken charges:
               1
     1  Ag   0.263730
     2  Ag   0.242059
     3  Ag  -0.554810
     4  Ag   0.286687
     5  Ag   0.155793
     6  Ag  -0.758542
     7  Ag  -0.129679
     8  Ag  -0.207215
     9  Ag   0.270655
    10  Ag   0.162497
    11  Ag   0.212366
    12  Ag   0.056460
 Sum of Mulliken charges =  -0.00000

 Dipole moment (field-independent basis, Debye):
    X=              0.0094    Y=              0.7075    Z=             -0.2701  Tot=              0.7574
 Quadrupole moment (field-independent basis, Debye-Ang):
   XX=           -229.4176   YY=           -221.9583   ZZ=           -238.7009
   XY=             -2.1703   XZ=             -0.5248   YZ=              0.0837

 Optimization completed.
    -- Stationary point found.
 Normal termination of Gaussian 16 at Wed Feb 26 00:52:32 2025.
