 Gaussian 16, Revision C.01,
 Gaussian 16:  ES64L-G16RevC.01  3-Jul-2019

 -------------------------------------------
 #p wb97xd/def2SVP scf(xqc) scfcyc=999 force
 -------------------------------------------

 -------------
 Template file
 -------------
 Symbolic Z-matrix:
 Charge =  0 Multiplicity = 2

                         Standard orientation:
 ---------------------------------------------------------------------
 Center     Atomic      Atomic             Coordinates (Angstroms)
 Number     Number       Type             X           Y           Z
 ---------------------------------------------------------------------
      1         47           0        2.334257   -1.719222   -0.056089
      2         47           0       -2.333840    1.719954    0.057350
      3         47           0        0.321814    2.871314   -0.024159
      4         47           0       -0.321609   -2.870909    0.023991
      5         47           0        0.000049   -0.000235   -0.000424
      6         47           0        2.659991    1.158154   -0.071553
      7         47           0       -1.677621    0.198570    2.357243
      8         47           0        1.677880   -0.199489   -2.357057
      9         47           0       -0.767344    1.585711   -2.305453
     10         47           0       -2.660083   -1.157138    0.070811
     11         47           0        0.766647   -1.586058    2.306077
     12         47           0        1.100536    1.417837    2.285353
     13         47           0       -1.100675   -1.418490   -2.286089
 ---------------------------------------------------------------------

 SCF Done:  E(UwB97XD) =  -1911.40225125     A.U. after   34 cycles

 The electronic state is 2-A.
 Alpha  occ. eigenvalues --   -3.87206  -3.84680  -3.84680  -3.84639  -3.84638
 Alpha  occ. eigenvalues --   -3.84625  -3.84624  -3.84559  -3.84558  -3.84553
 Alpha  occ. eigenvalues --   -3.84552  -3.84531  -3.84531  -2.45466  -2.45311
 Alpha  occ. eigenvalues --   -2.45294  -2.42970  -2.42957  -2.42933  -2.42923
 Alpha  occ. eigenvalues --   -2.42921  -2.42920  -2.42898  -2.42885  -2.42877
 Alpha  occ. eigenvalues --   -2.42863  -2.42845  -2.42841  -2.42822  -2.42791
 Alpha  occ. eigenvalues --   -2.42786  -2.42774  -2.42745  -2.42741  -2.42725
 Alpha  occ. eigenvalues --   -2.42715  -2.42705  -2.42697  -2.42691  -2.42668
 Alpha  occ. eigenvalues --   -2.42657  -2.42654  -2.42649  -2.42642  -2.42587
 Alpha  occ. eigenvalues --   -2.42569  -2.42551  -2.42539  -2.42536  -2.42524
 Alpha  occ. eigenvalues --   -2.42507  -2.42497  -0.48479  -0.48463  -0.48326
 Alpha  occ. eigenvalues --   -0.47791  -0.47773  -0.47758  -0.46052  -0.45570
 Alpha  occ. eigenvalues --   -0.45184  -0.45178  -0.44815  -0.44649  -0.44631
 Alpha  occ. eigenvalues --   -0.44617  -0.44595  -0.44582  -0.44338  -0.44313
 Alpha  occ. eigenvalues --   -0.44071  -0.43972  -0.43916  -0.43843  -0.43591
 Alpha  occ. eigenvalues --   -0.43573  -0.43386  -0.43286  -0.43112  -0.43082
 Alpha  occ. eigenvalues --   -0.43065  -0.42922  -0.42892  -0.42387  -0.42345
 Alpha  occ. eigenvalues --   -0.42187  -0.42118  -0.42109  -0.41709  -0.41416
 Alpha  occ. eigenvalues --   -0.41399  -0.41026  -0.40911  -0.40822  -0.40807
 Alpha  occ. eigenvalues --   -0.40305  -0.40288  -0.40254  -0.40073  -0.40063
 Alpha  occ. eigenvalues --   -0.39687  -0.39568  -0.39494  -0.39470  -0.39458
 Alpha  occ. eigenvalues --   -0.39370  -0.39364  -0.39330  -0.39315  -0.39299
 Alpha  occ. eigenvalues --   -0.39289  -0.39176  -0.39161  -0.39142  -0.39053
 Alpha  occ. eigenvalues --   -0.38932  -0.38920  -0.37441  -0.31559  -0.31543
 Alpha  occ. eigenvalues --   -0.31311  -0.20962  -0.20942  -0.20799
 Alpha virt. eigenvalues --   -0.05807  -0.05781  -0.05006  -0.02320   0.00345
 Alpha virt. eigenvalues --    0.00361   0.00472   0.01326   0.01345   0.01597
 Alpha virt. eigenvalues --    0.03597   0.03630   0.03790   0.08186   0.08208

  Beta  occ. eigenvalues --   -3.87044  -3.84633  -3.84633  -3.84595  -3.84594
  Beta  occ. eigenvalues --   -3.84581  -3.84580  -3.84535  -3.84533  -3.84529
  Beta  occ. eigenvalues --   -3.84528  -3.84509  -3.84508  -2.45198  -2.45175
  Beta  occ. eigenvalues --   -2.45167  -2.42943  -2.42930  -2.42905  -2.42894
  Beta  occ. eigenvalues --   -2.42881  -2.42881  -2.42873  -2.42855  -2.42840
  Beta  occ. eigenvalues --   -2.42831  -2.42820  -2.42818  -2.42797  -2.42759
  Beta  occ. eigenvalues --   -2.42750  -2.42748  -2.42730  -2.42725  -2.42700
  Beta  occ. eigenvalues --   -2.42686  -2.42683  -2.42680  -2.42672  -2.42643
  Beta  occ. eigenvalues --   -2.42640  -2.42634  -2.42626  -2.42602  -2.42555
  Beta  occ. eigenvalues --   -2.42537  -2.42513  -2.42500  -2.42498  -2.42486
  Beta  occ. eigenvalues --   -2.42471  -2.42460  -0.48428  -0.48412  -0.48129
  Beta  occ. eigenvalues --   -0.47736  -0.47711  -0.47636  -0.45990  -0.45462
  Beta  occ. eigenvalues --   -0.45148  -0.45142  -0.44757  -0.44564  -0.44547
  Beta  occ. eigenvalues --   -0.44544  -0.44529  -0.44528  -0.44262  -0.44237
  Beta  occ. eigenvalues --   -0.43975  -0.43936  -0.43879  -0.43793  -0.43536
  Beta  occ. eigenvalues --   -0.43523  -0.43351  -0.43127  -0.43038  -0.43020
  Beta  occ. eigenvalues --   -0.42942  -0.42880  -0.42848  -0.42343  -0.42301
  Beta  occ. eigenvalues --   -0.42068  -0.42058  -0.41910  -0.41645  -0.41378
  Beta  occ. eigenvalues --   -0.41363  -0.40983  -0.40833  -0.40781  -0.40766
  Beta  occ. eigenvalues --   -0.40268  -0.40252  -0.40235  -0.40015  -0.40007
  Beta  occ. eigenvalues --   -0.39730  -0.39525  -0.39447  -0.39425  -0.39410
  Beta  occ. eigenvalues --   -0.39334  -0.39327  -0.39245  -0.39231  -0.39228
  Beta  occ. eigenvalues --   -0.39220  -0.39121  -0.39103  -0.39019  -0.38865
  Beta  occ. eigenvalues --   -0.38844  -0.38831  -0.37393  -0.31162  -0.31088
  Beta  occ. eigenvalues --   -0.29731  -0.20908  -0.20905
  Beta virt. eigenvalues --   -0.07769  -0.05628  -0.05618  -0.04746  -0.01260
  Beta virt. eigenvalues --    0.00663   0.00702   0.00843   0.01697   0.01756
  Beta virt. eigenvalues --    0.02006   0.03556   0.03597   0.04149   0.08255

 Mulliken charges and spin densities:
               1          2
     1  Ag   0.275668   0.094915
     2  Ag   0.275812   0.094893
     3  Ag   0.283628   0.103261
     4  Ag   0.283125   0.103372
     5  Ag  -3.237054  -0.153864
     6  Ag   0.274880   0.095133
     7  Ag   0.264207   0.097406
     8  Ag   0.264380   0.097289
     9  Ag   0.261770   0.094295
    10  Ag   0.274345   0.095198
    11  Ag   0.262541   0.094440
    12  Ag   0.257516   0.091821
    13  Ag   0.259184   0.091841
 Sum of Mulliken charges =  -0.00000   1.00000

 Dipole moment (field-independent basis, Debye):
    X=              0.0001    Y=             -0.0012    Z=             -0.0013  Tot=              0.0018
 Quadrupole moment (field-independent basis, Debye-Ang):
   XX=           -256.2312   YY=           -255.9063   ZZ=           -249.0942
   XY=              0.0033   XZ=              0.2606   YZ=             -0.0127

 Optimization completed.
    -- Stationary point found.
 Normal termination of Gaussian 16 at Wed Feb 26 07:48:02 2025.
