 Gaussian 16, Revision C.01,
 Gaussian 16:  ES64L-G16RevC.01  3-Jul-2019

 -------------------------------------------
 #p wb97xd/def2SVP scf(xqc) scfcyc=999 force
 -------------------------------------------

 -------------
 Template file
 -------------
 Symbolic Z-matrix:
 Charge =  0 Multiplicity = 1

                         Standard orientation:
 ---------------------------------------------------------------------
 Center     Atomic      Atomic             Coordinates (Angstroms)
 Number     Number       Type             X           Y           Z
 ---------------------------------------------------------------------
      1         47           0        2.026203    1.666412   -0.620841
      2         47           0        2.025973   -0.296682    1.751994
      3         47           0       -2.679811    1.392935    1.149427
      4         47           0       -0.462583    0.000341   -0.000255
      5         47           0       -0.296327   -2.824878   -0.489273
      6         47           0       -0.294239    0.987941    2.689622
      7         47           0       -0.297978   -1.811932    2.219837
      8         47           0       -0.295941    1.836223   -2.199549
      9         47           0       -2.679890   -1.692685    0.630422
     10         47           0       -0.296578    2.829777    0.460741
     11         47           0       -0.297085   -1.014955   -2.679768
     12         47           0        4.203713   -0.000748   -0.000845
     13         47           0        2.024706   -1.371593   -1.131651
     14         47           0       -2.680162    0.299844   -1.779861
 ---------------------------------------------------------------------

 SCF Done:  E(RwB97XD) =  -2058.46623707     A.U. after   25 cycles

 The electronic state is 1-A.
 Alpha  occ. eigenvalues --   -3.86715  -3.84693  -3.84689  -3.84686  -3.84676
 Alpha  occ. eigenvalues --   -3.84673  -3.84668  -3.84420  -3.84374  -3.84371
 Alpha  occ. eigenvalues --   -3.84367  -3.84038  -3.84032  -3.84030  -2.44861
 Alpha  occ. eigenvalues --   -2.44859  -2.44857  -2.43000  -2.42984  -2.42982
 Alpha  occ. eigenvalues --   -2.42969  -2.42963  -2.42961  -2.42884  -2.42881
 Alpha  occ. eigenvalues --   -2.42881  -2.42834  -2.42832  -2.42824  -2.42818
 Alpha  occ. eigenvalues --   -2.42752  -2.42750  -2.42732  -2.42665  -2.42663
 Alpha  occ. eigenvalues --   -2.42612  -2.42546  -2.42545  -2.42541  -2.42515
 Alpha  occ. eigenvalues --   -2.42513  -2.42468  -2.42465  -2.42464  -2.42383
 Alpha  occ. eigenvalues --   -2.42344  -2.42341  -2.42273  -2.42265  -2.42262
 Alpha  occ. eigenvalues --   -2.42173  -2.42168  -2.42141  -2.42109  -2.42045
 Alpha  occ. eigenvalues --   -2.42041  -0.48274  -0.48268  -0.48047  -0.47403
 Alpha  occ. eigenvalues --   -0.47400  -0.46949  -0.46251  -0.46027  -0.45649
 Alpha  occ. eigenvalues --   -0.45647  -0.44983  -0.44853  -0.44784  -0.44781
 Alpha  occ. eigenvalues --   -0.44373  -0.44370  -0.44336  -0.44335  -0.44201
 Alpha  occ. eigenvalues --   -0.43940  -0.43936  -0.43771  -0.43569  -0.43566
 Alpha  occ. eigenvalues --   -0.43323  -0.43106  -0.43103  -0.43064  -0.42822
 Alpha  occ. eigenvalues --   -0.42819  -0.42813  -0.42265  -0.42265  -0.42024
 Alpha  occ. eigenvalues --   -0.42019  -0.41959  -0.41957  -0.41919  -0.41372
 Alpha  occ. eigenvalues --   -0.41330  -0.41327  -0.41130  -0.41127  -0.40799
 Alpha  occ. eigenvalues --   -0.40726  -0.40595  -0.40593  -0.40176  -0.40030
 Alpha  occ. eigenvalues --   -0.40029  -0.40028  -0.39660  -0.39659  -0.39624
 Alpha  occ. eigenvalues --   -0.39460  -0.39351  -0.39349  -0.39324  -0.39178
 Alpha  occ. eigenvalues --   -0.39175  -0.39053  -0.39051  -0.39001  -0.38935
 Alpha  occ. eigenvalues --   -0.38931  -0.38817  -0.38689  -0.38687  -0.38093
 Alpha  occ. eigenvalues --   -0.38092  -0.37307  -0.32537  -0.31201  -0.31197
 Alpha  occ. eigenvalues --   -0.23991  -0.20964  -0.20959
 Alpha virt. eigenvalues --   -0.05805  -0.05801  -0.05506  -0.03311  -0.00570
 Alpha virt. eigenvalues --   -0.00565  -0.00515   0.00928   0.01692   0.01696
 Alpha virt. eigenvalues --    0.03189   0.03190   0.03956   0.04304   0.06840

 Mulliken charges:
               1
     1  Ag  -0.056538
     2  Ag  -0.055538
     3  Ag   0.254049
     4  Ag  -3.150039
     5  Ag   0.345492
     6  Ag   0.347860
     7  Ag   0.347140
     8  Ag   0.348059
     9  Ag   0.254515
    10  Ag   0.347513
    11  Ag   0.347611
    12  Ag   0.469214
    13  Ag  -0.054532
    14  Ag   0.255195
 Sum of Mulliken charges =  -0.00000

 Dipole moment (field-independent basis, Debye):
    X=              0.0144    Y=              0.0008    Z=             -0.0022  Tot=              0.0146
 Quadrupole moment (field-independent basis, Debye-Ang):
   XX=           -264.9517   YY=           -274.4694   ZZ=           -274.4258
   XY=             -0.0057   XZ=              0.0153   YZ=              0.0089

 Optimization completed.
    -- Stationary point found.
 Normal termination of Gaussian 16 at Wed Feb 26 02:38:01 2025.
