 Gaussian 16, Revision C.01,
 Gaussian 16:  ES64L-G16RevC.01  3-Jul-2019

 -------------------------------------------
 #p wb97xd/def2SVP scf(xqc) scfcyc=999 force
 -------------------------------------------

 -------------
 Template file
 -------------
 Symbolic Z-matrix:
 Charge =  0 Multiplicity = 2

                         Standard orientation:
 ---------------------------------------------------------------------
 Center     Atomic      Atomic             Coordinates (Angstroms)
 Number     Number       Type             X           Y           Z
 ---------------------------------------------------------------------
      1         47           0        2.955887   -0.004904   -1.850043
      2         47           0        2.460431    2.165930   -0.005703
      3         47           0        2.460434   -2.165928    0.005719
      4         47           0       -1.885437   -0.004485   -1.689519
      5         47           0       -3.772132    1.411706   -0.003710
      6         47           0        0.509891   -1.576499    2.265968
      7         47           0        0.509901    1.576524   -2.265966
      8         47           0        0.509899    1.588555    2.257662
      9         47           0        2.955880    0.004906    1.850049
     10         47           0       -1.149636   -2.232110    0.005902
     11         47           0        0.509917   -1.588581   -2.257658
     12         47           0       -3.772132   -1.411708    0.003699
     13         47           0        0.742182    0.000000   -0.000013
     14         47           0       -1.885449    0.004484    1.689515
     15         47           0       -1.149637    2.232109   -0.005904
 ---------------------------------------------------------------------

 SCF Done:  E(UwB97XD) =  -2205.50983765     A.U. after   27 cycles

 The electronic state is 2-A.
 Alpha  occ. eigenvalues --   -3.87528  -3.85199  -3.85199  -3.85197  -3.85197
 Alpha  occ. eigenvalues --   -3.84836  -3.84835  -3.84792  -3.84792  -3.84175
 Alpha  occ. eigenvalues --   -3.84175  -3.84083  -3.84082  -3.83570  -3.83556
 Alpha  occ. eigenvalues --   -2.45825  -2.45760  -2.45390  -2.43503  -2.43502
 Alpha  occ. eigenvalues --   -2.43489  -2.43488  -2.43383  -2.43382  -2.43337
 Alpha  occ. eigenvalues --   -2.43334  -2.43210  -2.43209  -2.43204  -2.43203
 Alpha  occ. eigenvalues --   -2.43124  -2.43123  -2.42996  -2.42991  -2.42970
 Alpha  occ. eigenvalues --   -2.42969  -2.42954  -2.42954  -2.42894  -2.42891
 Alpha  occ. eigenvalues --   -2.42849  -2.42845  -2.42392  -2.42391  -2.42288
 Alpha  occ. eigenvalues --   -2.42280  -2.42279  -2.42274  -2.42225  -2.42224
 Alpha  occ. eigenvalues --   -2.42144  -2.42134  -2.42134  -2.42124  -2.41833
 Alpha  occ. eigenvalues --   -2.41795  -2.41780  -2.41615  -2.41612  -2.41607
 Alpha  occ. eigenvalues --   -0.49140  -0.48935  -0.48764  -0.48599  -0.48585
 Alpha  occ. eigenvalues --   -0.47934  -0.46158  -0.45819  -0.45722  -0.45558
 Alpha  occ. eigenvalues --   -0.45436  -0.45316  -0.45199  -0.44927  -0.44885
 Alpha  occ. eigenvalues --   -0.44854  -0.44852  -0.44657  -0.44596  -0.44502
 Alpha  occ. eigenvalues --   -0.44482  -0.44351  -0.44159  -0.44030  -0.44001
 Alpha  occ. eigenvalues --   -0.43900  -0.43762  -0.43578  -0.43576  -0.43542
 Alpha  occ. eigenvalues --   -0.43346  -0.43277  -0.43103  -0.42873  -0.42636
 Alpha  occ. eigenvalues --   -0.42565  -0.42476  -0.42275  -0.42202  -0.41786
 Alpha  occ. eigenvalues --   -0.41505  -0.41491  -0.41247  -0.41107  -0.40915
 Alpha  occ. eigenvalues --   -0.40765  -0.40703  -0.40500  -0.40466  -0.40459
 Alpha  occ. eigenvalues --   -0.40131  -0.40118  -0.40111  -0.40085  -0.39844
 Alpha  occ. eigenvalues --   -0.39787  -0.39771  -0.39746  -0.39730  -0.39699
 Alpha  occ. eigenvalues --   -0.39472  -0.39432  -0.39425  -0.39343  -0.39243
 Alpha  occ. eigenvalues --   -0.39149  -0.39027  -0.39013  -0.38984  -0.38771
 Alpha  occ. eigenvalues --   -0.38468  -0.38337  -0.38162  -0.38006  -0.37833
 Alpha  occ. eigenvalues --   -0.37819  -0.34885  -0.31762  -0.31111  -0.24495
 Alpha  occ. eigenvalues --   -0.22162  -0.20730  -0.20033
 Alpha virt. eigenvalues --   -0.06358  -0.04998  -0.03859  -0.03317  -0.01857
 Alpha virt. eigenvalues --   -0.01072  -0.00068   0.01029   0.01256   0.01722
 Alpha virt. eigenvalues --    0.02929   0.03660   0.03903   0.04758   0.05664

  Beta  occ. eigenvalues --   -3.87347  -3.85118  -3.85118  -3.85116  -3.85115
  Beta  occ. eigenvalues --   -3.84834  -3.84834  -3.84787  -3.84787  -3.84169
  Beta  occ. eigenvalues --   -3.84169  -3.84074  -3.84074  -3.83564  -3.83550
  Beta  occ. eigenvalues --   -2.45570  -2.45506  -2.45304  -2.43452  -2.43447
  Beta  occ. eigenvalues --   -2.43435  -2.43434  -2.43326  -2.43324  -2.43274
  Beta  occ. eigenvalues --   -2.43273  -2.43156  -2.43155  -2.43138  -2.43132
  Beta  occ. eigenvalues --   -2.43116  -2.43107  -2.43004  -2.43000  -2.42969
  Beta  occ. eigenvalues --   -2.42967  -2.42949  -2.42949  -2.42880  -2.42877
  Beta  occ. eigenvalues --   -2.42829  -2.42826  -2.42385  -2.42383  -2.42283
  Beta  occ. eigenvalues --   -2.42282  -2.42275  -2.42260  -2.42208  -2.42207
  Beta  occ. eigenvalues --   -2.42150  -2.42130  -2.42113  -2.42112  -2.41832
  Beta  occ. eigenvalues --   -2.41786  -2.41769  -2.41610  -2.41602  -2.41594
  Beta  occ. eigenvalues --   -0.48867  -0.48816  -0.48709  -0.48547  -0.48528
  Beta  occ. eigenvalues --   -0.47925  -0.46142  -0.45779  -0.45648  -0.45524
  Beta  occ. eigenvalues --   -0.45361  -0.45240  -0.45164  -0.44850  -0.44816
  Beta  occ. eigenvalues --   -0.44804  -0.44775  -0.44582  -0.44507  -0.44461
  Beta  occ. eigenvalues --   -0.44381  -0.44249  -0.44097  -0.43963  -0.43938
  Beta  occ. eigenvalues --   -0.43847  -0.43718  -0.43513  -0.43482  -0.43474
  Beta  occ. eigenvalues --   -0.43323  -0.43205  -0.43003  -0.42798  -0.42565
  Beta  occ. eigenvalues --   -0.42503  -0.42364  -0.42238  -0.42137  -0.41754
  Beta  occ. eigenvalues --   -0.41471  -0.41418  -0.41157  -0.41080  -0.40838
  Beta  occ. eigenvalues --   -0.40722  -0.40594  -0.40495  -0.40449  -0.40380
  Beta  occ. eigenvalues --   -0.40102  -0.40090  -0.40075  -0.40037  -0.39833
  Beta  occ. eigenvalues --   -0.39764  -0.39744  -0.39700  -0.39672  -0.39544
  Beta  occ. eigenvalues --   -0.39466  -0.39379  -0.39339  -0.39289  -0.39222
  Beta  occ. eigenvalues --   -0.39128  -0.39018  -0.38939  -0.38927  -0.38745
  Beta  occ. eigenvalues --   -0.38366  -0.38324  -0.38155  -0.38004  -0.37788
  Beta  occ. eigenvalues --   -0.37721  -0.34790  -0.30672  -0.29904  -0.24420
  Beta  occ. eigenvalues --   -0.22010  -0.20434
  Beta virt. eigenvalues --   -0.07232  -0.06452  -0.04519  -0.03702  -0.03309
  Beta virt. eigenvalues --   -0.01844  -0.00159  -0.00035   0.01183   0.02237
  Beta virt. eigenvalues --    0.02464   0.03418   0.03597   0.03898   0.04782

 Mulliken charges and spin densities:
               1          2
     1  Ag   0.270788   0.027010
     2  Ag   0.538815   0.034616
     3  Ag   0.538815   0.034615
     4  Ag  -0.297539   0.033806
     5  Ag   0.561887  -0.011943
     6  Ag   0.594000   0.238896
     7  Ag   0.594016   0.238894
     8  Ag   0.593921   0.238900
     9  Ag   0.270786   0.027010
    10  Ag  -0.012674   0.049368
    11  Ag   0.593937   0.238899
    12  Ag   0.561888  -0.011943
    13  Ag  -4.498417  -0.221299
    14  Ag  -0.297550   0.033804
    15  Ag  -0.012673   0.049367
 Sum of Mulliken charges =  -0.00000   1.00000

 Dipole moment (field-independent basis, Debye):
    X=              1.0425    Y=             -0.0000    Z=             -0.0000  Tot=              1.0425
 Quadrupole moment (field-independent basis, Debye-Ang):
   XX=           -292.0107   YY=           -288.0874   ZZ=           -291.7208
   XY=              0.0000   XZ=              0.0001   YZ=             -0.0093

 Optimization completed.
    -- Stationary point found.
 Normal termination of Gaussian 16 at Wed Feb 26 00:56:14 2025.
