 Gaussian 16, Revision C.01,
 Gaussian 16:  ES64L-G16RevC.01  3-Jul-2019

 -------------------------------------------
 #p wb97xd/def2SVP scf(xqc) scfcyc=999 force
 -------------------------------------------

 -------------
 Template file
 -------------
 Symbolic Z-matrix:
 Charge =  0 Multiplicity = 1

                         Standard orientation:
 ---------------------------------------------------------------------
 Center     Atomic      Atomic             Coordinates (Angstroms)
 Number     Number       Type             X           Y           Z
 ---------------------------------------------------------------------
      1         47           0        3.477742    0.529594    0.000000
      2         47           0       -1.423257   -1.217136    2.196870
      3         47           0        1.183639   -0.386534    1.563089
      4         47           0       -0.867519    1.485922    1.524280
      5         47           0        1.780187    2.361073    1.477795
      6         47           0        0.332317   -3.165099    1.402072
      7         47           0        1.183639   -0.386534   -1.563089
      8         47           0       -1.423257   -1.217136   -2.196870
      9         47           0       -0.867519    1.485922   -1.524280
     10         47           0        0.332317   -3.165099   -1.402072
     11         47           0        2.694200   -2.232732    0.000000
     12         47           0       -2.186258   -2.870627    0.000000
     13         47           0       -2.909684    2.731214    0.000000
     14         47           0       -0.197609    3.797180    0.000000
     15         47           0       -2.889125   -0.111081    0.000000
     16         47           0        1.780187    2.361073   -1.477795
 ---------------------------------------------------------------------

 SCF Done:  E(RwB97XD) =  -2352.57603522     A.U. after   25 cycles

 The electronic state is 1-A'.
 Alpha  occ. eigenvalues --   -3.85751  -3.85401  -3.85077  -3.85073  -3.84985
 Alpha  occ. eigenvalues --   -3.84982  -3.84892  -3.84839  -3.84678  -3.84663
 Alpha  occ. eigenvalues --   -3.84460  -3.84460  -3.84443  -3.84003  -3.83996
 Alpha  occ. eigenvalues --   -3.83686  -2.44001  -2.43916  -2.43844  -2.43722
 Alpha  occ. eigenvalues --   -2.43527  -2.43522  -2.43356  -2.43338  -2.43307
 Alpha  occ. eigenvalues --   -2.43297  -2.43202  -2.43191  -2.43118  -2.43109
 Alpha  occ. eigenvalues --   -2.43075  -2.43065  -2.43031  -2.43020  -2.43014
 Alpha  occ. eigenvalues --   -2.42991  -2.42989  -2.42974  -2.42946  -2.42936
 Alpha  occ. eigenvalues --   -2.42924  -2.42893  -2.42879  -2.42800  -2.42795
 Alpha  occ. eigenvalues --   -2.42689  -2.42638  -2.42628  -2.42625  -2.42573
 Alpha  occ. eigenvalues --   -2.42538  -2.42535  -2.42525  -2.42512  -2.42510
 Alpha  occ. eigenvalues --   -2.42183  -2.42181  -2.42149  -2.42139  -2.42100
 Alpha  occ. eigenvalues --   -2.41997  -2.41894  -2.41766  -2.41735  -0.47469
 Alpha  occ. eigenvalues --   -0.47122  -0.46920  -0.46647  -0.46635  -0.46551
 Alpha  occ. eigenvalues --   -0.46531  -0.46406  -0.46402  -0.46226  -0.46021
 Alpha  occ. eigenvalues --   -0.46017  -0.45792  -0.45536  -0.45513  -0.45358
 Alpha  occ. eigenvalues --   -0.45333  -0.45084  -0.44969  -0.44921  -0.44786
 Alpha  occ. eigenvalues --   -0.44729  -0.44603  -0.44360  -0.44232  -0.44205
 Alpha  occ. eigenvalues --   -0.44010  -0.43778  -0.43695  -0.43543  -0.43533
 Alpha  occ. eigenvalues --   -0.43184  -0.43065  -0.42932  -0.42875  -0.42790
 Alpha  occ. eigenvalues --   -0.42790  -0.42555  -0.42466  -0.42381  -0.42142
 Alpha  occ. eigenvalues --   -0.42077  -0.41889  -0.41815  -0.41651  -0.41316
 Alpha  occ. eigenvalues --   -0.41288  -0.41090  -0.40914  -0.40902  -0.40789
 Alpha  occ. eigenvalues --   -0.40740  -0.40562  -0.40449  -0.40400  -0.40277
 Alpha  occ. eigenvalues --   -0.40226  -0.40114  -0.40082  -0.39940  -0.39900
 Alpha  occ. eigenvalues --   -0.39753  -0.39609  -0.39538  -0.39378  -0.39353
 Alpha  occ. eigenvalues --   -0.39192  -0.39177  -0.39099  -0.38921  -0.38869
 Alpha  occ. eigenvalues --   -0.38794  -0.38608  -0.38586  -0.38356  -0.38210
 Alpha  occ. eigenvalues --   -0.38198  -0.38095  -0.37805  -0.37657  -0.37569
 Alpha  occ. eigenvalues --   -0.35196  -0.33358  -0.29118  -0.25403  -0.24180
 Alpha  occ. eigenvalues --   -0.21830  -0.21712
 Alpha virt. eigenvalues --   -0.07331  -0.05661  -0.05332  -0.03971  -0.02641
 Alpha virt. eigenvalues --   -0.02339  -0.01363  -0.00841   0.01435   0.01941
 Alpha virt. eigenvalues --    0.03455   0.03718   0.04292   0.04798   0.05717

 Mulliken charges:
               1
     1  Ag   0.306544
     2  Ag   0.562274
     3  Ag  -0.927638
     4  Ag  -0.658189
     5  Ag   0.217421
     6  Ag   0.182910
     7  Ag  -0.927638
     8  Ag   0.562274
     9  Ag  -0.658189
    10  Ag   0.182910
    11  Ag   0.385071
    12  Ag  -0.092259
    13  Ag   0.645975
    14  Ag   0.512553
    15  Ag  -0.511441
    16  Ag   0.217421
 Sum of Mulliken charges =  -0.00000

 Dipole moment (field-independent basis, Debye):
    X=              0.2519    Y=              0.5621    Z=             -0.0000  Tot=              0.6159
 Quadrupole moment (field-independent basis, Debye-Ang):
   XX=           -304.8213   YY=           -304.1127   ZZ=           -317.8657
   XY=            -10.2885   XZ=              0.0000   YZ=              0.0000

 Optimization completed.
    -- Stationary point found.
 Normal termination of Gaussian 16 at Tue Feb 25 20:49:44 2025.
