 Gaussian 16, Revision C.01,
 Gaussian 16:  ES64L-G16RevC.01  3-Jul-2019

 -------------------------------------------
 #p wb97xd/def2SVP scf(xqc) scfcyc=999 force
 -------------------------------------------

 -------------
 Template file
 -------------
 Symbolic Z-matrix:
 Charge =  0 Multiplicity = 2

                         Standard orientation:
 ---------------------------------------------------------------------
 Center     Atomic      Atomic             Coordinates (Angstroms)
 Number     Number       Type             X           Y           Z
 ---------------------------------------------------------------------
      1         47           0       -2.310620    1.495292    0.787204
      2         47           0       -2.310763   -1.495228    0.786987
      3         47           0        2.310763    1.495228    0.786987
      4         47           0        2.310620   -1.495292    0.787204
      5         47           0        0.000000    2.284828   -0.654857
      6         47           0       -0.000000   -2.284828   -0.654857
      7         47           0        0.000000    0.000000    1.283548
      8         47           0       -1.400827   -0.000017   -1.561109
      9         47           0        1.400827    0.000017   -1.561109
 ---------------------------------------------------------------------

 SCF Done:  E(UwB97XD) =  -1323.25110818     A.U. after   22 cycles

 The electronic state is 2-A.
 Alpha  occ. eigenvalues --   -3.85041  -3.84587  -3.84565  -3.84562  -3.84556
 Alpha  occ. eigenvalues --   -3.84306  -3.84305  -3.84300  -3.84299  -2.43368
 Alpha  occ. eigenvalues --   -2.43247  -2.43042  -2.42951  -2.42907  -2.42853
 Alpha  occ. eigenvalues --   -2.42810  -2.42782  -2.42708  -2.42676  -2.42674
 Alpha  occ. eigenvalues --   -2.42657  -2.42655  -2.42648  -2.42602  -2.42533
 Alpha  occ. eigenvalues --   -2.42524  -2.42502  -2.42498  -2.42433  -2.42427
 Alpha  occ. eigenvalues --   -2.42382  -2.42380  -2.42367  -2.42354  -2.42341
 Alpha  occ. eigenvalues --   -2.42337  -0.46886  -0.46657  -0.46430  -0.46422
 Alpha  occ. eigenvalues --   -0.46236  -0.45646  -0.45580  -0.45255  -0.45060
 Alpha  occ. eigenvalues --   -0.45047  -0.44730  -0.44577  -0.44521  -0.43739
 Alpha  occ. eigenvalues --   -0.43334  -0.43288  -0.43189  -0.42799  -0.42768
 Alpha  occ. eigenvalues --   -0.42407  -0.42358  -0.41716  -0.41399  -0.41004
 Alpha  occ. eigenvalues --   -0.40989  -0.40888  -0.40799  -0.40708  -0.40611
 Alpha  occ. eigenvalues --   -0.40491  -0.40278  -0.40197  -0.39856  -0.39836
 Alpha  occ. eigenvalues --   -0.39765  -0.39673  -0.39657  -0.39577  -0.39387
 Alpha  occ. eigenvalues --   -0.39297  -0.38920  -0.38793  -0.38745  -0.38547
 Alpha  occ. eigenvalues --   -0.38339  -0.38050  -0.29639  -0.27735  -0.23383
 Alpha  occ. eigenvalues --   -0.19011
 Alpha virt. eigenvalues --   -0.04517  -0.03537  -0.03313  -0.02333   0.00422
 Alpha virt. eigenvalues --    0.02631   0.02835   0.04041   0.05107   0.05347
 Alpha virt. eigenvalues --    0.05652   0.07651   0.07732   0.10141   0.10689

  Beta  occ. eigenvalues --   -3.84915  -3.84578  -3.84572  -3.84540  -3.84531
  Beta  occ. eigenvalues --   -3.84220  -3.84220  -3.84214  -3.84214  -2.43190
  Beta  occ. eigenvalues --   -2.43074  -2.43011  -2.42931  -2.42899  -2.42825
  Beta  occ. eigenvalues --   -2.42794  -2.42776  -2.42699  -2.42668  -2.42657
  Beta  occ. eigenvalues --   -2.42647  -2.42615  -2.42609  -2.42582  -2.42483
  Beta  occ. eigenvalues --   -2.42467  -2.42449  -2.42438  -2.42377  -2.42369
  Beta  occ. eigenvalues --   -2.42314  -2.42314  -2.42293  -2.42279  -2.42266
  Beta  occ. eigenvalues --   -2.42263  -0.46870  -0.46580  -0.46391  -0.46231
  Beta  occ. eigenvalues --   -0.46187  -0.45598  -0.45510  -0.45185  -0.44975
  Beta  occ. eigenvalues --   -0.44880  -0.44670  -0.44491  -0.44458  -0.43645
  Beta  occ. eigenvalues --   -0.43252  -0.43206  -0.43064  -0.42664  -0.42647
  Beta  occ. eigenvalues --   -0.42279  -0.42253  -0.41645  -0.41320  -0.40946
  Beta  occ. eigenvalues --   -0.40905  -0.40772  -0.40663  -0.40632  -0.40565
  Beta  occ. eigenvalues --   -0.40388  -0.40251  -0.40125  -0.39819  -0.39747
  Beta  occ. eigenvalues --   -0.39663  -0.39590  -0.39570  -0.39444  -0.39334
  Beta  occ. eigenvalues --   -0.39199  -0.38861  -0.38736  -0.38680  -0.38468
  Beta  occ. eigenvalues --   -0.38331  -0.37752  -0.28412  -0.26226  -0.23369
  Beta virt. eigenvalues --   -0.05776  -0.04427  -0.03217  -0.03190  -0.01856
  Beta virt. eigenvalues --    0.00454   0.03427   0.03741   0.04715   0.05378
  Beta virt. eigenvalues --    0.05669   0.05826   0.07699   0.07766   0.10212

 Mulliken charges and spin densities:
               1          2
     1  Ag   0.141531   0.226659
     2  Ag   0.141428   0.226788
     3  Ag   0.141428   0.226788
     4  Ag   0.141531   0.226659
     5  Ag   0.052742   0.047660
     6  Ag   0.052742   0.047660
     7  Ag  -0.510196  -0.060243
     8  Ag  -0.080603   0.029014
     9  Ag  -0.080603   0.029014
 Sum of Mulliken charges =  -0.00000   1.00000

 Dipole moment (field-independent basis, Debye):
    X=              0.0000    Y=             -0.0000    Z=              0.1787  Tot=              0.1787
 Quadrupole moment (field-independent basis, Debye-Ang):
   XX=           -166.8321   YY=           -173.8042   ZZ=           -181.2986
   XY=             -0.0028   XZ=             -0.0000   YZ=             -0.0000

 Optimization completed.
    -- Stationary point found.

 1\1\GINC-NE08\Force\UwB97XD\def2SVP\Ag9(2)\NPATSALIDIS\25-Feb-2025\0\\
 #p wb97xd/def2SVP scf(xqc) scfcyc=999 force\\Template file\\0,2\Ag,-2.
 310612,1.495304,0.787204\Ag,-2.310771,-1.495216,0.786987\Ag,2.310771,1
 .495216,0.786987\Ag,2.310612,-1.495304,0.787204\Ag,0.000012,2.284828,-
 0.654857\Ag,-0.000012,-2.284828,-0.654857\Ag,0.,0.,1.283548\Ag,-1.4008
 27,-0.00001,-1.561109\Ag,1.400827,0.00001,-1.561109\\Version=ES64L-G16
 RevC.01\State=2-A\HF=-1323.2511082\S2=0.76866\S2-1=0.\S2A=0.75025\RMSD
 =6.003e-09\RMSF=1.036e-04\Dipole=0.,0.,0.0702866\Quadrupole=5.3130204,

 Normal termination of Gaussian 16 at Tue Feb 25 20:30:00 2025.
