 Gaussian 16, Revision C.01,
 Gaussian 16:  ES64L-G16RevC.01  3-Jul-2019

 -------------------------------------------
 #p wb97xd/def2SVP scf(xqc) scfcyc=999 force
 -------------------------------------------

 -------------
 Template file
 -------------
 Symbolic Z-matrix:
 Charge =  0 Multiplicity = 2

                         Standard orientation:
 ---------------------------------------------------------------------
 Center     Atomic      Atomic             Coordinates (Angstroms)
 Number     Number       Type             X           Y           Z
 ---------------------------------------------------------------------
      1         47           0       -2.313394   -1.779786    1.601327
      2         47           0       -0.918815   -0.000001   -0.000002
      3         47           0       -0.723574   -2.726015   -0.777942
      4         47           0        1.649672    1.052678    1.485240
      5         47           0        0.686565   -1.671534    1.711700
      6         47           0       -0.832108   -0.530848   -2.726869
      7         47           0       -0.832108    0.530848    2.726867
      8         47           0       -3.213859    1.083137    1.172305
      9         47           0        3.321953   -1.140880    0.871878
     10         47           0        3.321954    1.140877   -0.871880
     11         47           0        1.884153    3.516856    0.086556
     12         47           0       -0.723571    2.726014    0.777945
     13         47           0       -3.213860   -1.083135   -1.172308
     14         47           0        1.884150   -3.516856   -0.086557
     15         47           0        1.649671   -1.052679   -1.485241
     16         47           0       -2.313393    1.779789   -1.601324
     17         47           0        0.686566    1.671535   -1.711696
 ---------------------------------------------------------------------

 SCF Done:  E(UwB97XD) =  -2499.63448806     A.U. after   30 cycles

 The electronic state is 2-A.
 Alpha  occ. eigenvalues --   -3.87224  -3.85426  -3.85426  -3.84993  -3.84993
 Alpha  occ. eigenvalues --   -3.84884  -3.84884  -3.84871  -3.84871  -3.84552
 Alpha  occ. eigenvalues --   -3.84550  -3.84228  -3.84228  -3.83931  -3.83920
 Alpha  occ. eigenvalues --   -3.83901  -3.83901  -2.45491  -2.45420  -2.45196
 Alpha  occ. eigenvalues --   -2.43732  -2.43712  -2.43557  -2.43556  -2.43483
 Alpha  occ. eigenvalues --   -2.43482  -2.43272  -2.43265  -2.43120  -2.43118
 Alpha  occ. eigenvalues --   -2.43104  -2.43100  -2.43079  -2.43076  -2.43047
 Alpha  occ. eigenvalues --   -2.43046  -2.42997  -2.42997  -2.42975  -2.42973
 Alpha  occ. eigenvalues --   -2.42956  -2.42953  -2.42893  -2.42890  -2.42782
 Alpha  occ. eigenvalues --   -2.42780  -2.42655  -2.42643  -2.42626  -2.42594
 Alpha  occ. eigenvalues --   -2.42461  -2.42443  -2.42372  -2.42365  -2.42243
 Alpha  occ. eigenvalues --   -2.42228  -2.42150  -2.42127  -2.42120  -2.42107
 Alpha  occ. eigenvalues --   -2.42095  -2.42039  -2.42011  -2.41967  -2.41966
 Alpha  occ. eigenvalues --   -2.41965  -2.41944  -2.41939  -0.49283  -0.49123
 Alpha  occ. eigenvalues --   -0.48833  -0.48684  -0.48351  -0.47837  -0.46329
 Alpha  occ. eigenvalues --   -0.46303  -0.46091  -0.46055  -0.46027  -0.45730
 Alpha  occ. eigenvalues --   -0.45523  -0.45482  -0.45478  -0.45410  -0.45271
 Alpha  occ. eigenvalues --   -0.45237  -0.45219  -0.45000  -0.44929  -0.44813
 Alpha  occ. eigenvalues --   -0.44536  -0.44526  -0.44507  -0.44230  -0.44104
 Alpha  occ. eigenvalues --   -0.44017  -0.43865  -0.43638  -0.43565  -0.43557
 Alpha  occ. eigenvalues --   -0.43411  -0.43349  -0.43108  -0.42918  -0.42882
 Alpha  occ. eigenvalues --   -0.42788  -0.42785  -0.42658  -0.42515  -0.42437
 Alpha  occ. eigenvalues --   -0.42134  -0.42108  -0.41898  -0.41560  -0.41281
 Alpha  occ. eigenvalues --   -0.41200  -0.40970  -0.40905  -0.40883  -0.40807
 Alpha  occ. eigenvalues --   -0.40746  -0.40610  -0.40585  -0.40500  -0.40336
 Alpha  occ. eigenvalues --   -0.40335  -0.40269  -0.40265  -0.40101  -0.40019
 Alpha  occ. eigenvalues --   -0.39946  -0.39834  -0.39763  -0.39732  -0.39689
 Alpha  occ. eigenvalues --   -0.39588  -0.39562  -0.39539  -0.39493  -0.39366
 Alpha  occ. eigenvalues --   -0.39295  -0.39254  -0.39247  -0.39156  -0.38899
 Alpha  occ. eigenvalues --   -0.38690  -0.38613  -0.38540  -0.38323  -0.38233
 Alpha  occ. eigenvalues --   -0.37950  -0.37697  -0.37645  -0.37580  -0.35193
 Alpha  occ. eigenvalues --   -0.34139  -0.32381  -0.24968  -0.24009  -0.22958
 Alpha  occ. eigenvalues --   -0.21313  -0.20216
 Alpha virt. eigenvalues --   -0.06062  -0.04163  -0.03981  -0.03100  -0.02687
 Alpha virt. eigenvalues --   -0.02246  -0.02100  -0.00543   0.00733   0.01318
 Alpha virt. eigenvalues --    0.02351   0.04243   0.04399   0.04596   0.05021

  Beta  occ. eigenvalues --   -3.87072  -3.85414  -3.85414  -3.84949  -3.84948
  Beta  occ. eigenvalues --   -3.84859  -3.84858  -3.84832  -3.84832  -3.84526
  Beta  occ. eigenvalues --   -3.84524  -3.84193  -3.84193  -3.83932  -3.83921
  Beta  occ. eigenvalues --   -3.83874  -3.83874  -2.45265  -2.45219  -2.45128
  Beta  occ. eigenvalues --   -2.43727  -2.43704  -2.43539  -2.43538  -2.43482
  Beta  occ. eigenvalues --   -2.43481  -2.43243  -2.43235  -2.43091  -2.43088
  Beta  occ. eigenvalues --   -2.43078  -2.43072  -2.43053  -2.43052  -2.43005
  Beta  occ. eigenvalues --   -2.43004  -2.42985  -2.42984  -2.42947  -2.42945
  Beta  occ. eigenvalues --   -2.42933  -2.42929  -2.42857  -2.42856  -2.42766
  Beta  occ. eigenvalues --   -2.42764  -2.42629  -2.42621  -2.42592  -2.42558
  Beta  occ. eigenvalues --   -2.42422  -2.42402  -2.42342  -2.42330  -2.42226
  Beta  occ. eigenvalues --   -2.42211  -2.42143  -2.42107  -2.42097  -2.42094
  Beta  occ. eigenvalues --   -2.42077  -2.42031  -2.42006  -2.41963  -2.41943
  Beta  occ. eigenvalues --   -2.41933  -2.41925  -2.41921  -0.49206  -0.48904
  Beta  occ. eigenvalues --   -0.48789  -0.48618  -0.48300  -0.47802  -0.46253
  Beta  occ. eigenvalues --   -0.46233  -0.46060  -0.45999  -0.45954  -0.45666
  Beta  occ. eigenvalues --   -0.45477  -0.45425  -0.45416  -0.45358  -0.45193
  Beta  occ. eigenvalues --   -0.45184  -0.45175  -0.44961  -0.44880  -0.44718
  Beta  occ. eigenvalues --   -0.44479  -0.44476  -0.44383  -0.44201  -0.44056
  Beta  occ. eigenvalues --   -0.43938  -0.43802  -0.43588  -0.43507  -0.43495
  Beta  occ. eigenvalues --   -0.43347  -0.43301  -0.43063  -0.42863  -0.42815
  Beta  occ. eigenvalues --   -0.42744  -0.42736  -0.42553  -0.42464  -0.42370
  Beta  occ. eigenvalues --   -0.42075  -0.42065  -0.41833  -0.41540  -0.41244
  Beta  occ. eigenvalues --   -0.41145  -0.40924  -0.40848  -0.40842  -0.40767
  Beta  occ. eigenvalues --   -0.40686  -0.40564  -0.40559  -0.40455  -0.40305
  Beta  occ. eigenvalues --   -0.40271  -0.40239  -0.40221  -0.40067  -0.39992
  Beta  occ. eigenvalues --   -0.39917  -0.39768  -0.39718  -0.39683  -0.39612
  Beta  occ. eigenvalues --   -0.39550  -0.39523  -0.39501  -0.39453  -0.39312
  Beta  occ. eigenvalues --   -0.39257  -0.39194  -0.39155  -0.39113  -0.38822
  Beta  occ. eigenvalues --   -0.38654  -0.38569  -0.38472  -0.38291  -0.38227
  Beta  occ. eigenvalues --   -0.37837  -0.37679  -0.37572  -0.37529  -0.35134
  Beta  occ. eigenvalues --   -0.33270  -0.31333  -0.24603  -0.23867  -0.23005
  Beta  occ. eigenvalues --   -0.21110
  Beta virt. eigenvalues --   -0.07625  -0.05981  -0.04141  -0.03800  -0.02939
  Beta virt. eigenvalues --   -0.02679  -0.01899  -0.01326   0.00735   0.00739
  Beta virt. eigenvalues --    0.02096   0.02445   0.04304   0.04515   0.04602

 Mulliken charges and spin densities:
               1          2
     1  Ag   0.616916   0.104197
     2  Ag  -5.386666  -0.146224
     3  Ag   0.124881   0.084976
     4  Ag  -0.497687   0.053599
     5  Ag  -0.151910   0.173102
     6  Ag   0.912359   0.093508
     7  Ag   0.912357   0.093508
     8  Ag   0.513524   0.035067
     9  Ag   0.532628  -0.001852
    10  Ag   0.532627  -0.001852
    11  Ag   0.642624   0.030515
    12  Ag   0.124879   0.084976
    13  Ag   0.513526   0.035067
    14  Ag   0.642622   0.030515
    15  Ag  -0.497683   0.053599
    16  Ag   0.616916   0.104198
    17  Ag  -0.151911   0.173102
 Sum of Mulliken charges =  -0.00000   1.00000

 Dipole moment (field-independent basis, Debye):
    X=             -1.4445    Y=             -0.0000    Z=             -0.0000  Tot=              1.4445
 Quadrupole moment (field-independent basis, Debye-Ang):
   XX=           -325.4792   YY=           -327.7371   ZZ=           -330.8956
   XY=              0.0000   XZ=             -0.0000   YZ=             -2.0287

 Optimization completed.
    -- Stationary point found.
 Normal termination of Gaussian 16 at Wed Mar  5 08:14:30 2025.
