 Gaussian 16, Revision C.01,
 Gaussian 16:  ES64L-G16RevC.01  3-Jul-2019

 -------------------------------------------
 #p wb97xd/def2SVP scf(xqc) scfcyc=999 force
 -------------------------------------------

 -------------
 Template file
 -------------
 Symbolic Z-matrix:
 Charge =  0 Multiplicity = 1

                         Standard orientation:
 ---------------------------------------------------------------------
 Center     Atomic      Atomic             Coordinates (Angstroms)
 Number     Number       Type             X           Y           Z
 ---------------------------------------------------------------------
      1         47           0        3.987893   -0.800762   -0.798937
      2         47           0        1.404932   -1.304937   -1.636705
      3         47           0        2.411525    1.490139   -1.265168
      4         47           0        0.000015    0.936992    2.831306
      5         47           0       -2.411472    1.490208   -1.265134
      6         47           0        0.000008    0.882282   -2.762007
      7         47           0        1.545618    2.844143    1.296074
      8         47           0        2.365678    0.038652    1.520520
      9         47           0       -3.987942   -0.800634   -0.798931
     10         47           0       -2.365663    0.038736    1.520491
     11         47           0       -0.000061   -3.475683   -0.514660
     12         47           0        0.000037    0.830093    0.059726
     13         47           0        0.000052    3.317395   -1.227295
     14         47           0        2.443744   -2.663592    0.782147
     15         47           0       -1.404984   -1.304881   -1.636677
     16         47           0       -1.545509    2.844203    1.296066
     17         47           0       -2.443841   -2.663513    0.782156
     18         47           0       -0.000028   -1.698839    1.817029
 ---------------------------------------------------------------------

 SCF Done:  E(RwB97XD) =  -2646.69490367     A.U. after   27 cycles

 The electronic state is 1-A.
 Alpha  occ. eigenvalues --   -3.86659  -3.85594  -3.85493  -3.85020  -3.85020
 Alpha  occ. eigenvalues --   -3.84869  -3.84695  -3.84695  -3.84674  -3.84659
 Alpha  occ. eigenvalues --   -3.84570  -3.84566  -3.84461  -3.84461  -3.84163
 Alpha  occ. eigenvalues --   -3.84140  -3.84136  -3.84061  -2.44879  -2.44875
 Alpha  occ. eigenvalues --   -2.44738  -2.43876  -2.43783  -2.43731  -2.43670
 Alpha  occ. eigenvalues --   -2.43604  -2.43563  -2.43246  -2.43237  -2.43172
 Alpha  occ. eigenvalues --   -2.43171  -2.43110  -2.43098  -2.43072  -2.42994
 Alpha  occ. eigenvalues --   -2.42966  -2.42940  -2.42923  -2.42913  -2.42863
 Alpha  occ. eigenvalues --   -2.42832  -2.42829  -2.42823  -2.42803  -2.42792
 Alpha  occ. eigenvalues --   -2.42778  -2.42746  -2.42740  -2.42684  -2.42677
 Alpha  occ. eigenvalues --   -2.42664  -2.42633  -2.42632  -2.42609  -2.42596
 Alpha  occ. eigenvalues --   -2.42596  -2.42581  -2.42570  -2.42523  -2.42513
 Alpha  occ. eigenvalues --   -2.42420  -2.42410  -2.42327  -2.42301  -2.42270
 Alpha  occ. eigenvalues --   -2.42250  -2.42220  -2.42185  -2.42156  -2.42156
 Alpha  occ. eigenvalues --   -2.42122  -2.42089  -0.49022  -0.48796  -0.48616
 Alpha  occ. eigenvalues --   -0.47989  -0.47958  -0.47650  -0.46707  -0.46477
 Alpha  occ. eigenvalues --   -0.46241  -0.46197  -0.46101  -0.45899  -0.45869
 Alpha  occ. eigenvalues --   -0.45682  -0.45597  -0.45494  -0.45458  -0.45414
 Alpha  occ. eigenvalues --   -0.45215  -0.45127  -0.45077  -0.44985  -0.44893
 Alpha  occ. eigenvalues --   -0.44759  -0.44739  -0.44605  -0.44597  -0.44252
 Alpha  occ. eigenvalues --   -0.44179  -0.44016  -0.43820  -0.43803  -0.43678
 Alpha  occ. eigenvalues --   -0.43605  -0.43379  -0.43324  -0.43154  -0.43080
 Alpha  occ. eigenvalues --   -0.43077  -0.42906  -0.42821  -0.42799  -0.42676
 Alpha  occ. eigenvalues --   -0.42528  -0.42374  -0.42139  -0.42089  -0.41557
 Alpha  occ. eigenvalues --   -0.41495  -0.41378  -0.41285  -0.41062  -0.40956
 Alpha  occ. eigenvalues --   -0.40924  -0.40841  -0.40711  -0.40624  -0.40594
 Alpha  occ. eigenvalues --   -0.40504  -0.40448  -0.40401  -0.40334  -0.40257
 Alpha  occ. eigenvalues --   -0.40110  -0.40089  -0.40072  -0.39864  -0.39810
 Alpha  occ. eigenvalues --   -0.39797  -0.39737  -0.39696  -0.39676  -0.39648
 Alpha  occ. eigenvalues --   -0.39516  -0.39470  -0.39447  -0.39386  -0.39228
 Alpha  occ. eigenvalues --   -0.39120  -0.39083  -0.38753  -0.38721  -0.38669
 Alpha  occ. eigenvalues --   -0.38600  -0.38481  -0.38367  -0.38341  -0.38037
 Alpha  occ. eigenvalues --   -0.37748  -0.37723  -0.37282  -0.34973  -0.34878
 Alpha  occ. eigenvalues --   -0.32556  -0.25478  -0.24419  -0.23553  -0.21689
 Alpha  occ. eigenvalues --   -0.21473
 Alpha virt. eigenvalues --   -0.06194  -0.05570  -0.04567  -0.03473  -0.03019
 Alpha virt. eigenvalues --   -0.02851  -0.02555  -0.02441   0.00617   0.00737
 Alpha virt. eigenvalues --    0.02044   0.03206   0.03735   0.04688   0.04787

 Mulliken charges:
               1
     1  Ag   0.684566
     2  Ag  -0.253689
     3  Ag   0.086403
     4  Ag   1.146111
     5  Ag   0.086380
     6  Ag   0.736427
     7  Ag   0.422270
     8  Ag  -0.033598
     9  Ag   0.684599
    10  Ag  -0.033654
    11  Ag   0.415864
    12  Ag  -5.186938
    13  Ag   0.666540
    14  Ag   0.391875
    15  Ag  -0.253738
    16  Ag   0.422266
    17  Ag   0.391901
    18  Ag  -0.373586
 Sum of Mulliken charges =  -0.00000

 Dipole moment (field-independent basis, Debye):
    X=             -0.0000    Y=              1.3847    Z=             -0.1674  Tot=              1.3948
 Quadrupole moment (field-independent basis, Debye-Ang):
   XX=           -341.2474   YY=           -346.5492   ZZ=           -353.8899
   XY=              0.0002   XZ=              0.0001   YZ=             -0.0983

 Optimization completed.
    -- Stationary point found.
 Normal termination of Gaussian 16 at Wed Mar  5 06:30:37 2025.
