 Gaussian 16, Revision C.01,
 Gaussian 16:  ES64L-G16RevC.01  3-Jul-2019

 -------------------------------------------
 #p wb97xd/def2SVP scf(xqc) scfcyc=999 force
 -------------------------------------------

 -------------
 Template file
 -------------
 Symbolic Z-matrix:
 Charge =  0 Multiplicity = 1

                         Standard orientation:
 ---------------------------------------------------------------------
 Center     Atomic      Atomic             Coordinates (Angstroms)
 Number     Number       Type             X           Y           Z
 ---------------------------------------------------------------------
      1         47           0        0.000000    1.317371    0.000000
      2         47           0        0.000000    0.000000    2.451551
      3         47           0       -0.000000   -1.317371    0.000000
      4         47           0        0.000000    0.000000   -2.451551
 ---------------------------------------------------------------------

 SCF Done:  E(RwB97XD) =  -588.059941544     A.U. after   15 cycles

 The electronic state is 1-AG.
 Alpha  occ. eigenvalues --   -3.85064  -3.85026  -3.82088  -3.82088  -2.43746
 Alpha  occ. eigenvalues --   -2.43283  -2.43204  -2.43166  -2.43151  -2.43108
 Alpha  occ. eigenvalues --   -2.40402  -2.40398  -2.40218  -2.40215  -2.40032
 Alpha  occ. eigenvalues --   -2.40031  -0.46308  -0.46213  -0.44662  -0.44049
 Alpha  occ. eigenvalues --   -0.43834  -0.43446  -0.42371  -0.41986  -0.40988
 Alpha  occ. eigenvalues --   -0.40826  -0.39756  -0.39228  -0.39202  -0.39200
 Alpha  occ. eigenvalues --   -0.38834  -0.38705  -0.38674  -0.38471  -0.38141
 Alpha  occ. eigenvalues --   -0.37185  -0.32385  -0.22680
 Alpha virt. eigenvalues --   -0.04814  -0.01453   0.00817   0.03513   0.04474
 Alpha virt. eigenvalues --    0.06052   0.06358   0.08971   0.10738   0.11882
 Alpha virt. eigenvalues --    0.13268   0.14850   0.15298   0.16698   0.17356

 Mulliken charges:
               1
     1  Ag   0.120467
     2  Ag  -0.120467
     3  Ag   0.120467
     4  Ag  -0.120467
 Sum of Mulliken charges =   0.00000

 Dipole moment (field-independent basis, Debye):
    X=             -0.0000    Y=              0.0000    Z=             -0.0000  Tot=              0.0000
 Quadrupole moment (field-independent basis, Debye-Ang):
   XX=            -80.5058   YY=            -71.4036   ZZ=            -79.7651
   XY=              0.0000   XZ=             -0.0000   YZ=             -0.0000

 Optimization completed.
    -- Stationary point found.
 Normal termination of Gaussian 16 at Tue Feb 25 19:59:25 2025.
