 Gaussian 16, Revision C.01,
 Gaussian 16:  ES64L-G16RevC.01  3-Jul-2019

 -------------------------------------------
 #p wb97xd/def2SVP scf(xqc) scfcyc=999 force
 -------------------------------------------

 -------------
 Template file
 -------------
 Symbolic Z-matrix:
 Charge =  0 Multiplicity = 1

                         Standard orientation:
 ---------------------------------------------------------------------
 Center     Atomic      Atomic             Coordinates (Angstroms)
 Number     Number       Type             X           Y           Z
 ---------------------------------------------------------------------
      1         47           0        0.003228   -1.392755   -0.971036
      2         47           0        2.095478   -0.005829    0.302977
      3         47           0       -0.441535   -0.027133    1.607911
      4         47           0        0.003703    1.425856   -0.922352
      5         16           0       -2.932503    0.001338   -0.141671
      6          8           0       -1.945447   -1.251110    0.070896
      7          8           0       -1.947189    1.247621    0.109634
 ---------------------------------------------------------------------

 SCF Done:  E(RwB97XD) =  -1136.35901924     A.U. after   21 cycles

 The electronic state is 1-A.
 Alpha  occ. eigenvalues --  -89.04425 -19.23225 -19.23213  -8.08604  -6.04256
 Alpha  occ. eigenvalues --   -6.03782  -6.02888  -3.85595  -3.85167  -3.85152
 Alpha  occ. eigenvalues --   -3.84121  -2.43938  -2.43737  -2.43706  -2.43653
 Alpha  occ. eigenvalues --   -2.43503  -2.43481  -2.43465  -2.43148  -2.43137
 Alpha  occ. eigenvalues --   -2.42648  -2.42346  -2.42259  -1.08684  -1.00157
 Alpha  occ. eigenvalues --   -0.68362  -0.52280  -0.49352  -0.48426  -0.47418
 Alpha  occ. eigenvalues --   -0.45716  -0.45492  -0.45015  -0.44841  -0.44385
 Alpha  occ. eigenvalues --   -0.43788  -0.43294  -0.42605  -0.42591  -0.41760
 Alpha  occ. eigenvalues --   -0.41729  -0.41660  -0.41417  -0.41030  -0.40169
 Alpha  occ. eigenvalues --   -0.40148  -0.40064  -0.39522  -0.39189  -0.38189
 Alpha  occ. eigenvalues --   -0.34609  -0.33241  -0.28637  -0.21216
 Alpha virt. eigenvalues --   -0.04667  -0.03948  -0.02167   0.02843   0.05231
 Alpha virt. eigenvalues --    0.05484   0.06703   0.08548   0.10789   0.12239
 Alpha virt. eigenvalues --    0.12506   0.13388   0.13704   0.14341   0.15681

 Mulliken charges:
               1
     1  Ag   0.313528
     2  Ag  -0.197154
     3  Ag   0.299389
     4  Ag   0.313165
     5  S    0.481025
     6  O   -0.604979
     7  O   -0.604974
 Sum of Mulliken charges =  -0.00000

 Dipole moment (field-independent basis, Debye):
    X=              5.0201    Y=              0.0073    Z=             -0.4135  Tot=              5.0371
 Quadrupole moment (field-independent basis, Debye-Ang):
   XX=           -106.6793   YY=            -97.7006   ZZ=            -93.9412
   XY=             -0.0065   XZ=              0.4741   YZ=             -0.0543

 Optimization completed.
    -- Stationary point found.
 Normal termination of Gaussian 16 at Tue Feb 25 23:55:52 2025.
