 Gaussian 16, Revision C.01,
 Gaussian 16:  ES64L-G16RevC.01  3-Jul-2019

 -------------------------------------------
 #p wb97xd/def2SVP scf(xqc) scfcyc=999 force
 -------------------------------------------

 -------------
 Template file
 -------------
 Symbolic Z-matrix:
 Charge =  0 Multiplicity = 1

                         Standard orientation:
 ---------------------------------------------------------------------
 Center     Atomic      Atomic             Coordinates (Angstroms)
 Number     Number       Type             X           Y           Z
 ---------------------------------------------------------------------
      1         16           0        0.000000   -0.000000    0.370415
      2          8           0       -0.000000    1.246180   -0.370414
      3          8           0       -0.000000   -1.246180   -0.370414
 ---------------------------------------------------------------------

 SCF Done:  E(RwB97XD) =  -548.287690789     A.U. after   14 cycles

 The electronic state is 1-A1.
 Alpha  occ. eigenvalues --  -89.20756 -19.31116 -19.31115  -8.24291  -6.19595
 Alpha  occ. eigenvalues --   -6.19545  -6.19007  -1.24287  -1.14203  -0.72725
 Alpha  occ. eigenvalues --   -0.58660  -0.58440  -0.57761  -0.45266  -0.44113
 Alpha  occ. eigenvalues --   -0.41470
 Alpha virt. eigenvalues --   -0.05819   0.14420   0.16983   0.37376   0.62628
 Alpha virt. eigenvalues --    0.63819   0.70024   0.71353   0.72934   0.74987
 Alpha virt. eigenvalues --    0.88112   0.91066   1.03083   1.03306   1.09142

 Mulliken charges:
               1
     1  S    0.768842
     2  O   -0.384421
     3  O   -0.384421
 Sum of Mulliken charges =   0.00000

 Dipole moment (field-independent basis, Debye):
    X=              0.0000    Y=             -0.0000    Z=              1.8727  Tot=              1.8727
 Quadrupole moment (field-independent basis, Debye-Ang):
   XX=            -20.4408   YY=            -27.0949   ZZ=            -22.4689
   XY=             -0.0000   XZ=             -0.0000   YZ=             -0.0000

 Optimization completed.
    -- Stationary point found.
 Normal termination of Gaussian 16 at Mon Feb 24 16:29:48 2025.
