 Gaussian 16, Revision C.01,
 Gaussian 16:  ES64L-G16RevC.01  3-Jul-2019

 -------------------------------------------
 #p wb97xd/def2SVP scf(xqc) scfcyc=999 force
 -------------------------------------------

 -------------
 Template file
 -------------
 Symbolic Z-matrix:
 Charge =  0 Multiplicity = 1

                         Standard orientation:
 ---------------------------------------------------------------------
 Center     Atomic      Atomic             Coordinates (Angstroms)
 Number     Number       Type             X           Y           Z
 ---------------------------------------------------------------------
      1         47           0        1.510937   -0.000000    2.136427
      2         47           0        0.000000    1.864656    0.601020
      3         47           0       -1.864656    0.000000   -0.601020
      4         47           0       -0.000000   -1.864656    0.601020
      5         47           0       -1.510937   -0.000000    2.136427
      6         47           0        0.000000    1.510937   -2.136427
      7         47           0        1.864656   -0.000000   -0.601020
      8         47           0        0.000000   -1.510937   -2.136427
 ---------------------------------------------------------------------

 SCF Done:  E(RwB97XD) =  -1176.23176461     A.U. after   19 cycles

 The electronic state is 1-A1.
 Alpha  occ. eigenvalues --   -3.84307  -3.84306  -3.84301  -3.84301  -3.83955
 Alpha  occ. eigenvalues --   -3.83947  -3.83947  -3.83937  -2.42661  -2.42613
 Alpha  occ. eigenvalues --   -2.42613  -2.42610  -2.42502  -2.42466  -2.42465
 Alpha  occ. eigenvalues --   -2.42465  -2.42448  -2.42437  -2.42387  -2.42387
 Alpha  occ. eigenvalues --   -2.42197  -2.42152  -2.42152  -2.42113  -2.42090
 Alpha  occ. eigenvalues --   -2.42075  -2.42075  -2.42074  -2.41984  -2.41972
 Alpha  occ. eigenvalues --   -2.41972  -2.41945  -0.46385  -0.46062  -0.45363
 Alpha  occ. eigenvalues --   -0.45079  -0.45079  -0.44980  -0.44934  -0.44744
 Alpha  occ. eigenvalues --   -0.44562  -0.44562  -0.44239  -0.44239  -0.43136
 Alpha  occ. eigenvalues --   -0.43113  -0.42963  -0.42963  -0.42626  -0.41899
 Alpha  occ. eigenvalues --   -0.41542  -0.41542  -0.40863  -0.40801  -0.40781
 Alpha  occ. eigenvalues --   -0.40562  -0.40562  -0.40446  -0.40255  -0.40255
 Alpha  occ. eigenvalues --   -0.39505  -0.39241  -0.39241  -0.39208  -0.38995
 Alpha  occ. eigenvalues --   -0.38688  -0.38688  -0.38600  -0.38482  -0.38344
 Alpha  occ. eigenvalues --   -0.38248  -0.37993  -0.37993  -0.27046  -0.23924
 Alpha  occ. eigenvalues --   -0.23924
 Alpha virt. eigenvalues --   -0.03823  -0.03373  -0.03373  -0.01570  -0.00066
 Alpha virt. eigenvalues --    0.00359   0.04631   0.05569   0.05569   0.06499
 Alpha virt. eigenvalues --    0.07884   0.08218   0.08218   0.08973   0.11440

 Mulliken charges:
               1
     1  Ag   0.120565
     2  Ag  -0.120565
     3  Ag  -0.120565
     4  Ag  -0.120565
     5  Ag   0.120565
     6  Ag   0.120565
     7  Ag  -0.120565
     8  Ag   0.120565
 Sum of Mulliken charges =  -0.00000

 Dipole moment (field-independent basis, Debye):
    X=             -0.0000    Y=             -0.0000    Z=              0.0000  Tot=              0.0000
 Quadrupole moment (field-independent basis, Debye-Ang):
   XX=           -159.2761   YY=           -159.2761   ZZ=           -142.8799
   XY=             -0.0000   XZ=              0.0000   YZ=              0.0000

 Optimization completed.
    -- Stationary point found.
 Normal termination of Gaussian 16 at Wed Feb 26 11:59:05 2025.
