 Gaussian 16, Revision C.01,
 Gaussian 16:  ES64L-G16RevC.01  3-Jul-2019

 -------------------------------------------
 #p wb97xd/def2SVP scf(xqc) scfcyc=999 force
 -------------------------------------------

 -------------
 Template file
 -------------
 Symbolic Z-matrix:
 Charge =  0 Multiplicity = 1

                         Standard orientation:
 ---------------------------------------------------------------------
 Center     Atomic      Atomic             Coordinates (Angstroms)
 Number     Number       Type             X           Y           Z
 ---------------------------------------------------------------------
      1         47           0       -0.370446    0.217535   -1.831412
      2         47           0        0.151288   -1.905144   -0.026190
      3         47           0        2.273454   -0.555826   -1.462908
      4         47           0        2.254472   -0.596941    1.471034
      5         47           0        1.361836    1.658745    0.027239
      6         47           0       -0.391967    0.170959    1.827911
      7         47           0       -2.369624   -0.762652   -0.029772
      8         47           0       -1.362096    2.131814    0.018864
      9          6           0       -4.568401   -1.052120   -0.006219
     10          8           0       -5.661838   -1.317042    0.035411
 ---------------------------------------------------------------------

 SCF Done:  E(RwB97XD) =  -1289.42962377     A.U. after   22 cycles

 The electronic state is 1-A.
 Alpha  occ. eigenvalues --  -19.41341 -10.47386  -3.86457  -3.83734  -3.83576
 Alpha  occ. eigenvalues --   -3.83567  -3.83377  -3.83195  -3.83193  -3.83084
 Alpha  occ. eigenvalues --   -2.44772  -2.44436  -2.44423  -2.42041  -2.41909
 Alpha  occ. eigenvalues --   -2.41880  -2.41870  -2.41845  -2.41773  -2.41732
 Alpha  occ. eigenvalues --   -2.41703  -2.41650  -2.41553  -2.41494  -2.41463
 Alpha  occ. eigenvalues --   -2.41408  -2.41397  -2.41366  -2.41309  -2.41268
 Alpha  occ. eigenvalues --   -2.41255  -2.41249  -2.41117  -2.41095  -1.30227
 Alpha  occ. eigenvalues --   -0.70708  -0.61230  -0.61212  -0.57888  -0.45879
 Alpha  occ. eigenvalues --   -0.45427  -0.45413  -0.45147  -0.44548  -0.44455
 Alpha  occ. eigenvalues --   -0.44370  -0.44301  -0.44199  -0.44106  -0.43807
 Alpha  occ. eigenvalues --   -0.43574  -0.43393  -0.42637  -0.42478  -0.42285
 Alpha  occ. eigenvalues --   -0.42233  -0.41640  -0.41505  -0.41022  -0.40591
 Alpha  occ. eigenvalues --   -0.40305  -0.40137  -0.40006  -0.39915  -0.39907
 Alpha  occ. eigenvalues --   -0.39842  -0.39440  -0.39150  -0.38855  -0.38600
 Alpha  occ. eigenvalues --   -0.38454  -0.38336  -0.38244  -0.38104  -0.37901
 Alpha  occ. eigenvalues --   -0.37879  -0.37731  -0.37581  -0.37441  -0.37199
 Alpha  occ. eigenvalues --   -0.26051  -0.23361  -0.23134
 Alpha virt. eigenvalues --   -0.03811  -0.03730  -0.01763  -0.01006  -0.00344
 Alpha virt. eigenvalues --   -0.00107   0.01771   0.01845   0.05235   0.06457
 Alpha virt. eigenvalues --    0.07061   0.08316   0.08860   0.08938   0.09984

 Mulliken charges:
               1
     1  Ag  -0.145692
     2  Ag  -0.161394
     3  Ag   0.126638
     4  Ag   0.125108
     5  Ag  -0.056813
     6  Ag  -0.146816
     7  Ag   0.049497
     8  Ag   0.061725
     9  C    0.133160
    10  O    0.014587
 Sum of Mulliken charges =  -0.00000

 Dipole moment (field-independent basis, Debye):
    X=             -2.6006    Y=             -0.5442    Z=             -0.0080  Tot=              2.6569
 Quadrupole moment (field-independent basis, Debye-Ang):
   XX=           -146.9122   YY=           -168.7551   ZZ=           -171.5114
   XY=             -1.8966   XZ=              0.0984   YZ=              0.0194

 Optimization completed.
    -- Stationary point found.
 Normal termination of Gaussian 16 at Wed Feb 26 00:59:08 2025.
